# vtk DataFile Version 3.0
planos terreno taxreg azinheira
ASCII
DATASET STRUCTURED_POINTS
DIMENSIONS 60 50 3
ORIGIN 60399 4165513 0
SPACING 10 -10 100
POINT_DATA 9000

SCALARS Altitude float
LOOKUP_TABLE default 
157.445
158.255
158.769
159.023
159.149
159.229
159.301
159.386
159.491
159.618
159.75
159.803
159.841
159.891
160
160.088
160.113
160.119
160.247
160.219
160.167
160.131
159.999
159.765
159.551
159.315
159.091
158.896
158.749
158.663
158.667
158.799
159.024
159.061
158.995
158.79
158.333
157.872
157.373
156.724
155.965
155.108
154.178
153.21
152.263
151.395
150.637
150.005
149.507
149.114
148.817
148.604
148.443
148.336
148.27
148.249
148.25
148.27
148.276
148.173
157.935
158.82
159.342
159.503
159.557
159.592
159.627
159.673
159.737
159.835
159.998
160
160
160.001
160.108
160.198
160.241
160.414
160.407
160.384
160.342
160.284
160.165
160.004
159.987
159.683
159.496
159.372
159.285
159.235
159.259
159.459
159.929
160.027
160.04
159.895
159.302
158.913
158.535
157.888
157.158
156.321
155.405
154.414
153.392
152.397
151.481
150.677
150.003
149.465
149.05
148.747
148.525
148.346
148.172
148.043
147.966
147.899
147.804
147.639
158.505
159.438
159.979
160.011
160.004
160.002
160.001
160
160
160.003
160.14
160.19
160.206
160.224
160.294
160.362
160.401
160.601
160.595
160.578
160.548
160.499
160.419
160.319
160.238
160.014
159.998
160
159.999
159.997
160.004
160.13
160.737
161.11
161.237
160.897
160.229
160.026
159.822
159.103
158.442
157.624
156.744
155.731
154.634
153.529
152.476
151.524
150.694
150
149.451
149.049
148.772
148.552
148.3
147.993
147.805
147.659
147.509
147.316
159.142
160.026
160.52
160.612
160.579
160.522
160.464
160.41
160.364
160.342
160.395
160.432
160.453
160.476
160.521
160.565
160.592
160.807
160.806
160.8
160.789
160.773
160.748
160.72
160.697
160.652
160.721
160.828
160.938
161.05
161.192
161.458
161.975
162.394
162.56
162.278
161.783
161.441
161.018
160.277
159.813
158.978
158.181
157.133
155.95
154.741
153.574
152.495
151.53
150.692
150
149.482
149.145
148.91
148.619
148.189
147.798
147.551
147.374
147.184
159.809
160.645
161.05
161.154
161.117
161.03
160.933
160.84
160.762
160.711
160.705
160.711
160.719
160.734
160.759
160.784
160.801
161.018
161.027
161.04
161.058
161.087
161.132
161.196
161.286
161.405
161.593
161.822
162.069
162.328
162.623
162.999
163.47
163.861
164.024
163.868
163.521
163.14
162.649
161.969
161.278
160.363
159.726
158.587
157.302
155.999
154.738
153.556
152.477
151.511
150.677
150.008
149.567
149.28
148.858
148.373
147.922
147.581
147.402
147.234
159.984
160.926
161.372
161.523
161.517
161.438
161.332
161.223
161.126
161.052
161.008
160.986
160.977
160.977
160.986
160.998
161.008
161.217
161.244
161.281
161.334
161.413
161.532
161.699
161.919
162.193
162.526
162.903
163.305
163.722
164.158
164.62
165.089
165.464
165.634
165.568
165.335
165.007
164.555
163.924
163.138
162.189
161.254
160.023
158.657
157.285
155.954
154.693
153.52
152.447
151.486
150.662
150.011
149.559
149.093
148.61
148.166
147.821
147.605
147.451
159.982
160.937
161.443
161.675
161.733
161.694
161.608
161.506
161.406
161.321
161.258
161.219
161.197
161.187
161.184
161.187
161.198
161.386
161.435
161.499
161.587
161.716
161.906
162.173
162.52
162.946
163.439
163.981
164.552
165.129
165.695
166.231
166.716
167.101
167.272
167.255
167.115
166.89
166.546
165.991
165.151
164.098
162.925
161.558
160.073
158.625
157.232
155.905
154.657
153.496
152.432
151.482
150.67
150.01
149.458
148.951
148.504
148.155
147.919
147.771
159.801
160.676
161.267
161.61
161.759
161.781
161.734
161.656
161.569
161.488
161.423
161.379
161.355
161.343
161.337
161.338
161.354
161.508
161.577
161.667
161.786
161.958
162.209
162.563
163.027
163.596
164.252
164.967
165.713
166.453
167.139
167.728
168.215
168.641
168.786
168.783
168.718
168.617
168.433
168.01
167.121
165.963
164.646
163.183
161.624
160.065
158.595
157.201
155.885
154.652
153.504
152.451
151.51
150.696
150.004
149.418
148.929
148.551
148.288
148.127
159.157
160.109
160.903
161.379
161.619
161.704
161.704
161.661
161.599
161.535
161.483
161.448
161.433
161.43
161.431
161.438
161.462
161.569
161.651
161.758
161.899
162.101
162.398
162.822
163.385
164.082
164.89
165.775
166.696
167.597
168.395
168.999
169.399
169.911
170.003
170.006
170.006
170.014
169.998
169.767
168.83
167.635
166.286
164.81
163.239
161.633
160.061
158.587
157.203
155.903
154.685
153.546
152.494
151.547
150.716
150.005
149.43
148.99
148.677
148.473
158.638
159.884
160.589
161.065
161.349
161.478
161.524
161.521
161.49
161.452
161.426
161.415
161.42
161.436
161.455
161.477
161.512
161.555
161.64
161.75
161.898
162.113
162.439
162.911
163.549
164.35
165.29
166.328
167.412
168.467
169.374
169.951
170.061
170.522
170.75
170.853
170.925
170.984
170.978
170.732
170.001
168.971
167.741
166.353
164.847
163.262
161.65
160.072
158.605
157.239
155.958
154.744
153.591
152.521
151.558
150.718
150.01
149.471
149.079
148.792
157.94
159.188
160.009
160.586
160.948
161.11
161.211
161.252
161.251
161.242
161.253
161.278
161.315
161.361
161.406
161.448
161.493
161.458
161.532
161.629
161.764
161.974
162.308
162.806
163.493
164.369
165.409
166.569
167.784
168.963
169.963
170.487
170.694
170.985
171.2
171.344
171.455
171.536
171.531
171.323
170.795
169.998
168.98
167.762
166.388
164.894
163.307
161.682
160.095
158.646
157.304
156.02
154.772
153.582
152.495
151.541
150.72
150.024
149.508
149.087
157.166
158.398
159.328
160.008
160.468
160.618
160.798
160.884
160.903
160.916
160.978
161.046
161.119
161.205
161.284
161.346
161.399
161.268
161.319
161.387
161.491
161.675
162
162.501
163.209
164.127
165.231
166.473
167.774
169.018
170.027
170.648
170.958
171.179
171.362
171.515
171.648
171.747
171.769
171.641
171.299
170.744
169.985
168.993
167.806
166.464
164.968
163.347
161.691
160.107
158.691
157.341
155.992
154.68
153.474
152.423
151.527
150.736
149.96
149.352
156.373
157.582
158.587
159.388
159.96
160.032
160.355
160.462
160.475
160.494
160.633
160.74
160.836
160.973
161.09
161.169
161.223
160.975
160.996
161.025
161.084
161.225
161.533
162.015
162.714
163.642
164.776
166.065
167.43
168.768
169.925
170.534
170.881
171.064
171.24
171.414
171.573
171.701
171.769
171.734
171.557
171.218
170.702
169.985
169.036
167.895
166.546
164.967
163.268
161.598
160.056
158.638
157.183
155.742
154.416
153.274
152.307
151.407
150.152
149.553
155.582
156.741
157.757
158.597
159.222
159.579
159.972
160.003
159.999
160.013
160.279
160.389
160.469
160.674
160.826
160.908
160.95
160.562
160.56
160.557
160.568
160.65
160.96
161.392
162.055
162.962
164.094
165.39
166.762
168.095
169.241
170.007
170.492
170.653
170.881
171.11
171.314
171.482
171.601
171.653
171.612
171.453
171.149
170.671
169.998
169.107
167.944
166.407
164.658
162.901
161.268
159.773
158.231
156.684
155.251
154.042
153.006
152.013
150.876
150.097
154.811
155.894
156.877
157.711
158.365
158.837
159.214
159.375
159.493
159.669
159.981
160
160.015
160.333
160.483
160.538
160.557
159.997
159.997
159.996
159.995
160.022
160.387
160.705
161.304
162.162
163.272
164.558
165.91
167.212
168.359
169.27
169.935
170.034
170.399
170.708
170.968
171.179
171.343
171.461
171.521
171.497
171.356
171.068
170.616
169.995
169.069
167.511
165.688
163.838
162.082
160.386
159.016
157.431
155.945
154.794
153.864
152.975
152.029
151.228
154.086
155.074
155.993
156.789
157.434
157.931
158.314
158.572
158.79
159.033
159.305
159.451
159.63
159.968
160.001
159.999
159.998
159.235
159.266
159.316
159.408
159.594
159.964
160.033
160.566
161.344
162.431
163.718
165.051
166.308
167.412
168.345
169.085
169.517
169.991
170.329
170.635
170.881
171.073
171.227
171.345
171.405
171.364
171.181
170.838
170.358
169.759
168.098
166.205
164.339
162.657
161.134
159.761
157.988
156.47
155.556
154.924
154.292
153.545
152.764
153.427
154.312
155.149
155.883
156.483
156.957
157.334
157.633
157.898
158.163
158.424
158.637
158.857
159.099
159.176
159.197
159.213
158.375
158.468
158.59
158.774
159.027
159.331
159.537
159.984
160.614
161.712
163.043
164.384
165.593
166.622
167.529
168.36
169.01
169.575
170.007
170.391
170.664
170.862
171.02
171.155
171.25
171.253
171.095
170.706
170.052
169.362
167.936
166.12
164.229
162.449
160.913
159.753
158.162
156.829
156.413
156.24
155.939
155.385
154.617
152.849
153.627
154.374
155.03
155.557
155.973
156.315
156.607
156.875
157.133
157.379
157.603
157.819
158.019
158.14
158.222
158.296
157.526
157.707
157.914
158.199
158.522
158.85
159.149
159.529
160.05
161.287
162.731
164.114
165.292
166.233
167.079
167.98
168.735
169.398
169.989
170.342
170.586
170.756
170.889
171.008
171.104
171.128
171.002
170.646
169.995
169.015
167.567
165.799
163.866
161.931
160.206
159.24
158.307
157.655
157.627
157.885
157.878
157.471
156.653
152.34
153.015
153.674
154.251
154.683
155.016
155.294
155.545
155.782
156.008
156.224
156.43
156.635
156.835
157.012
157.18
157.351
156.795
157.101
157.408
157.821
158.239
158.655
159.085
159.56
160.084
161.45
162.98
164.402
165.595
166.549
167.37
168.142
168.827
169.445
170.005
170.394
170.628
170.765
170.856
170.936
171.007
171.031
170.931
170.617
169.974
168.785
167.305
165.601
163.73
161.827
160.14
159.275
158.827
158.683
159.012
159.72
159.935
159.629
158.679
151.86
152.443
153.027
153.535
153.858
154.096
154.298
154.488
154.672
154.848
155.018
155.194
155.391
155.618
155.876
156.165
156.477
156.273
156.775
157.262
157.766
158.265
158.781
159.351
160.029
160.945
162.319
163.826
165.228
166.402
167.331
168.097
168.744
169.386
169.977
170.354
170.633
170.803
170.885
170.919
170.943
170.969
170.965
170.866
170.574
169.946
168.69
167.303
165.772
164.09
162.407
160.976
160.12
159.976
160.076
160.494
161.378
161.769
161.423
160.476
151.368
151.873
152.387
152.793
153.046
153.212
153.343
153.468
153.59
153.706
153.82
153.957
154.147
154.422
154.791
155.244
155.751
155.985
156.731
157.408
158.02
158.611
159.255
160.025
161.002
162.187
163.607
165.083
166.429
167.529
168.351
169.019
169.451
169.986
170.421
170.725
170.936
171.051
171.081
171.057
171.018
170.983
170.933
170.809
170.527
169.976
168.967
167.763
166.419
164.959
163.571
162.495
161.924
161.92
162.242
162.812
163.512
163.794
163.421
162.518
150.864
151.295
151.786
152.105
152.277
152.373
152.442
152.506
152.568
152.625
152.682
152.773
152.953
153.287
153.795
154.452
155.204
155.907
156.928
157.813
158.543
159.232
160.03
161.038
162.235
163.596
165.071
166.519
167.787
168.763
169.358
169.93
170.033
170.435
170.799
171.065
171.238
171.319
171.311
171.24
171.142
171.044
170.94
170.784
170.502
170.017
169.39
168.486
167.416
166.184
165.066
164.347
164.077
164.244
164.724
165.372
165.911
166.028
165.543
164.56
150.379
150.689
151.242
151.46
151.54
151.573
151.593
151.612
151.628
151.637
151.646
151.687
151.844
152.242
152.909
153.799
154.83
155.987
157.31
158.427
159.26
160.046
161.023
162.176
163.508
164.979
166.498
167.913
169.064
169.888
170.057
170.445
170.624
170.893
171.162
171.375
171.515
171.57
171.539
171.435
171.293
171.143
170.996
170.836
170.624
170.334
169.977
169.334
168.617
167.566
166.646
166.272
166.263
166.555
167.116
167.82
168.218
168.19
167.564
166.481
149.992
150.055
150.684
150.781
150.789
150.786
150.784
150.782
150.775
150.762
150.744
150.744
150.851
151.311
152.149
153.281
154.6
156.127
157.757
159.147
160.041
160.961
162.007
163.213
164.612
166.15
167.701
169.07
170.005
170.576
170.752
170.953
171.103
171.285
171.475
171.636
171.744
171.781
171.735
171.616
171.446
171.261
171.083
170.92
170.761
170.586
170.368
170.03
169.819
168.913
168.147
168.13
168.271
168.538
169.017
169.749
169.953
169.834
169.154
168.09
149.724
149.986
150.021
150.01
150.002
149.998
149.997
149.997
149.998
149.998
149.996
149.989
150.022
150.539
151.544
152.889
154.457
156.177
158.031
159.71
160.597
161.585
162.689
163.923
165.365
166.945
168.522
169.89
170.613
171.012
171.181
171.312
171.431
171.566
171.705
171.826
171.907
171.93
171.881
171.759
171.582
171.378
171.179
171.009
170.877
170.778
170.685
170.566
170.446
170.041
169.867
169.898
169.94
169.975
170.069
170.46
170.468
170.146
169.968
169.22
149.271
149.465
149.434
149.344
149.265
149.217
149.202
149.218
149.26
149.315
149.369
149.424
149.559
150.044
151.151
152.619
154.331
155.996
157.77
159.244
160.174
161.46
162.772
164.151
165.664
167.258
168.789
170.026
170.737
171.112
171.313
171.459
171.587
171.715
171.836
171.934
171.997
172.01
171.962
171.851
171.682
171.478
171.271
171.094
170.97
170.91
170.897
170.9
170.889
170.793
170.8
170.866
170.897
170.876
170.851
170.898
170.744
170.428
170.336
169.925
148.714
148.848
148.801
148.671
148.541
148.457
148.44
148.496
148.615
148.775
148.945
149.133
149.42
149.992
151.021
152.453
154.162
155.736
157.439
158.893
160.034
161.297
162.62
164.043
165.579
167.168
168.679
169.925
170.543
170.917
171.189
171.403
171.582
171.736
171.866
171.962
172.015
172.022
171.979
171.885
171.738
171.55
171.351
171.173
171.049
170.999
171.023
171.089
171.157
171.204
171.286
171.378
171.427
171.406
171.328
171.211
170.98
170.682
170.47
170.031
148.092
148.182
148.119
147.971
147.818
147.726
147.736
147.863
148.097
148.403
148.719
149.041
149.433
149.999
150.962
152.322
153.968
155.487
157.168
158.691
159.993
161.112
162.328
163.703
165.207
166.743
168.172
169.319
170.009
170.482
170.887
171.208
171.458
171.656
171.81
171.918
171.973
171.978
171.939
171.863
171.747
171.589
171.412
171.248
171.125
171.071
171.099
171.188
171.297
171.403
171.518
171.629
171.7
171.696
171.604
171.429
171.178
170.91
170.691
170.377
147.409
147.463
147.387
147.238
147.096
147.035
147.11
147.348
147.734
148.216
148.673
149.089
149.524
150.005
150.907
152.2
153.778
155.252
156.901
158.459
159.846
160.76
161.872
163.198
164.661
166.148
167.524
168.662
169.473
170.033
170.563
170.969
171.28
171.517
171.695
171.818
171.884
171.892
171.859
171.799
171.712
171.592
171.448
171.309
171.199
171.138
171.15
171.237
171.362
171.493
171.624
171.748
171.837
171.852
171.765
171.575
171.327
171.114
170.878
170.547
146.665
146.682
146.599
146.471
146.378
146.395
146.585
146.995
147.602
148.246
148.801
149.217
149.548
149.997
150.864
152.105
153.611
155.028
156.569
158.013
159.243
160.135
161.276
162.604
164.058
165.521
166.884
168.074
169.081
169.94
170.364
170.765
171.101
171.36
171.552
171.686
171.764
171.783
171.759
171.711
171.648
171.563
171.453
171.344
171.254
171.19
171.18
171.25
171.382
171.532
171.68
171.817
171.921
171.954
171.878
171.686
171.422
171.256
171.053
170.778
145.871
145.843
145.755
145.667
145.662
145.815
146.182
146.854
147.676
148.479
149.121
149.511
149.678
150.024
150.896
152.085
153.496
154.851
156.25
157.585
158.796
159.872
160.774
162.05
163.506
164.964
166.314
167.505
168.549
169.429
170.02
170.559
170.946
171.22
171.414
171.552
171.638
171.672
171.66
171.624
171.575
171.51
171.424
171.334
171.258
171.19
171.153
171.204
171.349
171.53
171.71
171.872
171.997
172.05
171.998
171.838
171.618
171.426
171.206
170.923
145.051
144.962
144.859
144.82
144.934
145.285
145.919
146.835
147.875
148.845
149.582
149.986
150.011
150.385
151.152
152.21
153.473
154.73
155.963
157.165
158.278
159.264
160.151
161.567
163.091
164.567
165.912
167.087
168.148
169.107
169.975
170.511
170.872
171.126
171.309
171.441
171.531
171.577
171.581
171.556
171.512
171.449
171.362
171.264
171.174
171.088
171.007
171.041
171.221
171.453
171.692
171.906
172.067
172.145
172.117
171.984
171.791
171.577
171.327
171.014
144.237
144.065
143.924
143.912
144.139
144.695
145.604
146.797
148.081
149.204
149.971
150.31
150.484
150.869
151.538
152.448
153.535
154.642
155.715
156.814
157.891
158.931
160.008
161.408
162.918
164.394
165.758
166.986
168.104
169.118
169.989
170.504
170.835
171.068
171.241
171.371
171.463
171.518
171.534
171.515
171.466
171.384
171.265
171.118
170.972
170.837
170.658
170.673
170.94
171.241
171.572
171.875
172.101
172.219
172.215
172.098
171.941
171.698
171.424
171.109
143.47
143.191
142.973
142.939
143.23
143.961
145.134
146.631
148.203
149.469
150.036
150.514
150.88
151.33
151.945
152.727
153.639
154.522
155.461
156.508
157.619
158.771
160.003
161.42
162.912
164.379
165.759
167.03
168.184
169.194
169.997
170.48
170.794
171.024
171.204
171.342
171.441
171.5
171.519
171.495
171.428
171.305
171.12
170.875
170.616
170.419
170.018
169.974
170.444
170.813
171.279
171.721
172.051
172.236
172.271
172.16
172.028
171.767
171.471
171.128
142.797
142.391
142.053
141.927
142.194
143.038
144.434
146.241
148.197
149.863
150.452
150.834
151.254
151.733
152.296
152.96
153.705
154.25
155.109
156.17
157.374
158.664
160.017
161.475
162.955
164.408
165.794
167.089
168.264
169.265
170.001
170.423
170.723
170.974
171.184
171.344
171.453
171.513
171.522
171.477
171.368
171.181
170.896
170.501
170.04
169.823
169.085
168.774
169.661
170.068
170.75
171.386
171.858
172.143
172.287
172.297
172.135
171.856
171.493
171.051
142.765
142.276
141.737
141.252
140.961
141.078
141.943
143.459
145.467
147.698
149.691
150.537
151.106
151.557
152.027
152.499
153.024
153.098
153.68
154.561
155.719
157.077
158.544
160.026
161.494
162.943
164.368
165.747
167.052
168.253
169.281
170.004
170.592
170.892
171.157
171.35
171.469
171.523
171.511
171.423
171.244
170.962
170.548
169.97
169.215
168.542
167.766
167.445
168.174
168.98
169.957
170.822
171.449
171.817
172.062
172.15
172.056
171.823
171.466
171
142.551
141.96
141.31
140.696
140.227
140.062
140.831
142.287
144.308
146.627
148.77
150.144
151.157
151.76
152.16
152.45
152.728
152.298
152.84
153.799
155.107
156.662
158.34
159.985
161.389
162.773
164.16
165.516
166.813
168.028
169.115
169.946
170.015
170.358
170.746
171.089
171.317
171.435
171.473
171.432
171.286
171.001
170.578
169.978
169.108
168.081
167.089
166.255
165.974
166.548
167.538
168.755
169.932
170.758
171.171
171.551
171.729
171.713
171.552
171.226
142.562
141.888
141.161
140.492
139.998
139.743
140.038
141.126
142.962
145.318
147.788
149.863
151.093
151.736
152.054
152.153
151.394
151.256
151.799
152.863
154.33
156.066
157.926
159.725
161.01
162.358
163.718
165.036
166.284
167.442
168.46
169.227
169.581
170.003
170.493
170.925
171.168
171.265
171.279
171.217
171.017
170.596
169.999
169.169
168.067
166.795
165.542
164.552
164.194
164.716
165.801
167.186
168.595
169.734
170.16
170.772
171.02
171.051
170.971
170.697
142.82
142.061
141.259
140.525
139.996
139.733
139.645
140.111
141.54
143.764
146.439
149.042
150.539
151.263
151.619
151.62
150.571
150.127
150.737
151.869
153.448
155.283
157.178
158.916
160.259
161.703
163.052
164.31
165.472
166.537
167.473
168.23
168.796
169.377
170.005
170.565
170.786
170.837
170.832
170.781
170.58
170.02
169.28
168.276
166.995
165.516
164.014
162.77
162.217
162.758
163.882
165.344
166.863
168.164
169.043
169.828
170.018
170.037
170.024
169.844
143.339
142.484
141.587
140.732
140.021
139.695
139.492
139.513
140.221
141.981
144.448
147.08
149.137
150.118
150.781
150.888
149.906
149.616
150.002
150.985
152.598
154.474
156.382
158.175
159.761
161.022
162.235
163.378
164.419
165.374
166.224
166.962
167.63
168.34
169.115
169.838
169.995
170.005
170.006
170.008
169.912
169.286
168.441
167.349
165.984
164.393
162.703
161.169
160.304
160.94
161.981
163.432
164.99
166.389
167.474
168.284
168.642
168.747
168.69
168.36
144.119
143.17
142.199
141.283
140.514
139.995
139.567
139.276
139.408
140.321
142.223
144.561
146.715
148.283
149.481
149.918
148.599
148.832
149.332
150.22
151.899
153.741
155.555
157.255
158.771
160.029
161.201
162.262
163.165
164.01
164.756
165.42
166.079
166.811
167.584
168.255
168.564
168.685
168.74
168.751
168.624
168.139
167.384
166.36
165.06
163.521
161.832
160.183
159.237
159.617
160.249
161.609
163.156
164.585
165.739
166.575
167.042
167.21
167.115
166.695
145.138
144.101
143.064
142.091
141.248
140.572
139.987
139.428
139.084
139.296
140.305
142.11
144.107
145.876
147.295
148.155
147.15
147.971
148.897
150.038
151.561
153.168
154.746
156.254
157.648
158.891
160.028
161.035
161.761
162.526
163.145
163.666
164.232
164.942
165.687
166.346
166.767
166.994
167.11
167.144
167.047
166.715
166.132
165.279
164.164
162.839
161.367
159.803
158.185
158
158.621
159.927
161.453
162.877
164.038
164.882
165.395
165.594
165.479
165.018
146.369
145.258
144.143
143.095
142.166
141.365
140.65
139.971
139.292
138.876
139.132
140.166
141.783
143.482
145.002
146.205
145.738
147.099
148.519
149.985
151.328
152.626
153.896
155.172
156.427
157.627
158.764
159.767
160.272
161.053
161.514
161.821
162.24
162.956
163.685
164.362
164.845
165.13
165.282
165.346
165.312
165.121
164.723
164.065
163.154
162.075
160.835
159.373
157.45
156.565
157.039
158.286
159.861
161.311
162.476
163.315
163.843
164.054
163.926
163.438
147.838
146.643
145.416
144.264
143.233
142.322
141.499
140.722
139.951
139.154
138.652
138.956
140.01
141.46
142.95
144.369
144.408
146.158
147.956
149.706
150.892
151.924
152.891
153.956
155.078
156.195
157.274
158.242
158.978
159.75
159.983
160.069
160.336
161.139
161.807
162.51
162.999
163.273
163.417
163.492
163.512
163.44
163.198
162.691
161.9
161.016
159.758
158.043
156.243
155.272
155.532
156.685
158.281
159.872
161.096
161.945
162.491
162.711
162.564
162.04
149.666
148.28
146.871
145.572
144.417
143.393
142.467
141.608
140.778
139.932
139.035
138.411
138.82
139.935
141.268
142.749
143.192
145.105
146.988
148.702
149.983
150.942
151.656
152.596
153.627
154.65
155.659
156.603
157.41
158.095
158.449
158.699
159.116
159.828
160.24
160.973
161.375
161.552
161.635
161.688
161.729
161.732
161.61
161.184
160.319
159.533
158.05
156.256
154.574
153.653
153.91
155.112
156.805
158.529
159.932
160.829
161.428
161.663
161.486
160.889
151.77
150.115
148.478
146.997
145.689
144.523
143.472
142.511
141.608
140.709
139.78
138.553
138.155
138.87
139.984
141.377
142.227
144.091
145.867
147.478
148.795
149.793
150.258
151.2
152.183
153.084
154.021
154.946
155.779
156.474
156.976
157.413
157.943
158.6
159.178
159.85
160.017
160.036
160.032
160.031
160.038
160.042
159.98
159.639
158.647
157.528
156.006
154.267
152.683
151.813
152.248
153.679
155.599
157.521
159.088
160.06
160.747
160.997
160.787
160.071
154.102
152.2
150.25
148.533
147.025
145.669
144.438
143.312
142.255
141.156
139.963
138.624
137.957
138.342
139.165
140.341
141.692
143.21
144.722
146.162
147.423
148.428
149.144
150.019
150.904
151.586
152.455
153.376
154.235
154.976
155.593
156.165
156.777
157.434
158.043
158.571
158.768
158.786
158.739
158.666
158.569
158.425
158.16
157.614
156.628
155.428
153.997
152.425
150.989
150.15
150.847
152.602
154.847
157.074
158.872
159.971
160.543
160.727
160.54
159.899
156.397
154.385
152.227
150.17
148.399
146.789
145.317
143.954
142.653
141.338
139.967
138.556
137.75
138.12
138.853
140.056
140.996
142.265
143.545
144.834
146.053
147.121
148.037
148.962
149.821
150.203
151.062
151.993
152.866
153.639
154.323
154.976
155.644
156.315
156.925
157.401
157.639
157.688
157.619
157.468
157.233
156.885
156.366
155.602
154.578
153.445
152.267
151.026
150.02
149.739
150.172
152.084
154.581
157.084
159.073
160.021
160.501
160.589
160.365
159.824
158.389
156.435
154.146
151.817
149.716
147.825
146.097
144.481
142.942
141.438
139.949
138.464
137.534
137.688
138.509
139.799
140.169
141.328
142.384
143.55
144.755
145.89
146.914
147.856
148.662
149.236
150.008
150.881
151.719
152.482
153.185
153.876
154.579
155.271
155.889
156.366
156.641
156.72
156.634
156.409
156.04
155.499
154.752
153.79
152.695
151.68
150.874
149.967
149.33
149.367
150.062
152.06
154.657
157.314
159.521
160.228
160.53
160.456
160.019
159.414
159.935
158.185
155.796
153.18
150.667
148.694
146.765
144.924
143.177
141.513
139.938
138.42
137.407
137.218
137.941
139.08
139.793
140.624
141.296
142.364
143.586
144.782
145.876
146.849
147.685
148.398
149.168
149.991
150.777
151.498
152.183
152.885
153.611
154.325
154.962
155.46
155.771
155.878
155.786
155.506
155.036
154.356
153.443
152.321
151.123
150.191
149.806
149.074
148.856
149.369
150.274
152.317
154.8
157.248
159.168
160.032
160.512
160.493
160.033
159.426 
157.445
158.255
158.769
159.023
159.149
159.229
159.301
159.386
159.491
159.618
159.75
159.803
159.841
159.891
160
160.088
160.113
160.119
160.247
160.219
160.167
160.131
159.999
159.765
159.551
159.315
159.091
158.896
158.749
158.663
158.667
158.799
159.024
159.061
158.995
158.79
158.333
157.872
157.373
156.724
155.965
155.108
154.178
153.21
152.263
151.395
150.637
150.005
149.507
149.114
148.817
148.604
148.443
148.336
148.27
148.249
148.25
148.27
148.276
148.173
157.935
158.82
159.342
159.503
159.557
159.592
159.627
159.673
159.737
159.835
159.998
160
160
160.001
160.108
160.198
160.241
160.414
160.407
160.384
160.342
160.284
160.165
160.004
159.987
159.683
159.496
159.372
159.285
159.235
159.259
159.459
159.929
160.027
160.04
159.895
159.302
158.913
158.535
157.888
157.158
156.321
155.405
154.414
153.392
152.397
151.481
150.677
150.003
149.465
149.05
148.747
148.525
148.346
148.172
148.043
147.966
147.899
147.804
147.639
158.505
159.438
159.979
160.011
160.004
160.002
160.001
160
160
160.003
160.14
160.19
160.206
160.224
160.294
160.362
160.401
160.601
160.595
160.578
160.548
160.499
160.419
160.319
160.238
160.014
159.998
160
159.999
159.997
160.004
160.13
160.737
161.11
161.237
160.897
160.229
160.026
159.822
159.103
158.442
157.624
156.744
155.731
154.634
153.529
152.476
151.524
150.694
150
149.451
149.049
148.772
148.552
148.3
147.993
147.805
147.659
147.509
147.316
159.142
160.026
160.52
160.612
160.579
160.522
160.464
160.41
160.364
160.342
160.395
160.432
160.453
160.476
160.521
160.565
160.592
160.807
160.806
160.8
160.789
160.773
160.748
160.72
160.697
160.652
160.721
160.828
160.938
161.05
161.192
161.458
161.975
162.394
162.56
162.278
161.783
161.441
161.018
160.277
159.813
158.978
158.181
157.133
155.95
154.741
153.574
152.495
151.53
150.692
150
149.482
149.145
148.91
148.619
148.189
147.798
147.551
147.374
147.184
159.809
160.645
161.05
161.154
161.117
161.03
160.933
160.84
160.762
160.711
160.705
160.711
160.719
160.734
160.759
160.784
160.801
161.018
161.027
161.04
161.058
161.087
161.132
161.196
161.286
161.405
161.593
161.822
162.069
162.328
162.623
162.999
163.47
163.861
164.024
163.868
163.521
163.14
162.649
161.969
161.278
160.363
159.726
158.587
157.302
155.999
154.738
153.556
152.477
151.511
150.677
150.008
149.567
149.28
148.858
148.373
147.922
147.581
147.402
147.234
159.984
160.926
161.372
161.523
161.517
161.438
161.332
161.223
161.126
161.052
161.008
160.986
160.977
160.977
160.986
160.998
161.008
161.217
161.244
161.281
161.334
161.413
161.532
161.699
161.919
162.193
162.526
162.903
163.305
163.722
164.158
164.62
165.089
165.464
165.634
165.568
165.335
165.007
164.555
163.924
163.138
162.189
161.254
160.023
158.657
157.285
155.954
154.693
153.52
152.447
151.486
150.662
150.011
149.559
149.093